digraph honpas_changes {

  /* Layout */
  graph [rankdir="LR", style="dotted", color="gray40", fontcolor="gray40", fontname="Helvetica"];
  node [shape="box", style="filled", fillcolor="white", fontname="Helvetica"];
  edge [color="midnightblue", fontname="Helvetica"];

  /* SIESTA 3.2 */
  subgraph cluster_0 {
    label = "SIESTA 3.2";

    node [fillcolor="gray95"];

    s32mf [label="Makefile", shape="component"];
    s32s0 [label="atm_transfer.f"];
    s32s1 [label="atm_types.f"];
    s32s2 [label="atom.f"];
    s32sc [label="basis_io.F", color="gray40", fontcolor="gray40"];
    s32s3 [label="broadcast_basis.F"];
    s32s4 [label="chemical.f"];
    s32s5 [label="dhscf.F"];
    s32s6 [label="initatom.f"];
    s32s7 [label="initparallel.F"];
    s32s8 [label="m_partial_charges.F"];
    s32s9 [label="periodic_table.f"];
    s32sd [label="radial.f", color="gray40", fontcolor="gray40"];
    s32sa [label="spher_harm.f"];
    s32sb [label="xc.f"];
    s3200 [label="1.F90", style="invis"];
    s3201 [label="11.F90", style="invis"];
    s3202 [label="2.F90", style="invis"];
    s3203 [label="cell_pbc.F90", style="invis"];
    s3204 [label="erf_fn.F", style="invis"];
    s3205 [label="gamma.F", style="invis"];
    s3206 [label="hfx_pair_list_methods.F", style="invis"];
    s3207 [label="hfx_screening_methods.F", style="invis"];
    s3208 [label="mathconstants.F", style="invis"];
    s3209 [label="nao2gto_contract_deriv_eri.F90", style="invis"];
    s3210 [label="nao2gto_contract_eri.F90", style="invis"];
    s3211 [label="nao2gto_erf_fn.F90", style="invis"];
    s3212 [label="nao2gto_eri.F90", style="invis"];
    s3213 [label="nao2gto_expint.F90", style="invis"];
    s3214 [label="nao2gto_extend_indx.F90", style="invis"];
    s3215 [label="nao2gto_farfield.F90", style="invis"];
    s3216 [label="nao2gto_farfield.f90", style="invis"];
    s3217 [label="nao2gto_full_DM.F90", style="invis"];
    s3218 [label="nao2gto_gamma_F.F90", style="invis"];
    s3219 [label="nao2gto_hfx_gradient.F90", style="invis"];
    s3220 [label="nao2gto_hfx_potential.F90", style="invis"];
    s3221 [label="nao2gto_index.F90", style="invis"];
    s3222 [label="nao2gto_kinds.F90", style="invis"];
    s3223 [label="nao2gto_libint_wrapper.F90", style="invis"];
    s3224 [label="nao2gto_libint_wrapper_types.F90", style="invis"];
    s3225 [label="nao2gto_mathconstants.F90", style="invis"];
    s3226 [label="nao2gto_neighb.F", style="invis"];
    s3227 [label="nao2gto_neighb.F90", style="invis"];
    s3228 [label="nao2gto_prescreen.F90", style="invis"];
    s3229 [label="nao2gto_prescreen.F90_back", style="invis"];
    s3230 [label="nao2gto_prescreen_1.F90", style="invis"];
    s3231 [label="nao2gto_primitive_eri.F90", style="invis"];
    s3232 [label="nao2gto_primitive_eri.F90_back", style="invis"];
    s3233 [label="nao2gto_screen.F90", style="invis"];
    s3234 [label="nao2gto_transfer.F90", style="invis"];
    s3235 [label="nao2gto_types.F90", style="invis"];
    s3236 [label="nao2gto_update_hfx.F90", style="invis"];
    s3237 [label="nao2gto_update_hfx_new.F90", style="invis"];
    s3238 [label="nao2gto_update_hfx_serial.F90", style="invis"];
    s3239 [label="nao2gto_util.F90", style="invis"];
    s3240 [label="powell.F90", style="invis"];
    s3241 [label="qs_util.F", style="invis"];
    s3242 [label="t_c_g0.F90", style="invis"];
    s3243 [label="t_sh_p_s_c.F", style="invis"];
    s3244 [label="xc_xwpbe.F90", style="invis"];
  }

  /* July 2017 */
  subgraph cluster_1 {
    label = "July 2017";

    node [fillcolor="white"];

    julmf [label="Makefile", shape="component", fillcolor="lightskyblue1", color="midnightblue", fontcolor="midnightblue"];
    juls0 [label="atm_transfer.f", fillcolor="lightskyblue1", color="midnightblue", fontcolor="midnightblue"];
    juls1 [label="atm_types.f", fillcolor="lightskyblue1", color="midnightblue", fontcolor="midnightblue"];
    juls2 [label="atom.f", fillcolor="lightskyblue1", color="midnightblue", fontcolor="midnightblue"];
    julsc [label="basis_io.F"];
    juls3 [label="broadcast_basis.F", fillcolor="lightskyblue1", color="midnightblue", fontcolor="midnightblue"];
    juls4 [label="chemical.f", fillcolor="lightskyblue1", color="midnightblue", fontcolor="midnightblue"];
    juls5 [label="dhscf.F", fillcolor="lightskyblue1", color="midnightblue", fontcolor="midnightblue"];
    juls6 [label="initatom.f", fillcolor="lightskyblue1", color="midnightblue", fontcolor="midnightblue"];
    juls7 [label="initparallel.F", fillcolor="lightskyblue1", color="midnightblue", fontcolor="midnightblue"];
    juls8 [label="m_partial_charges.F", fillcolor="lightskyblue1", color="midnightblue", fontcolor="midnightblue"];
    juls9 [label="periodic_table.f", fillcolor="lightskyblue1", color="midnightblue", fontcolor="midnightblue"];
    julsd [label="radial.f"];
    julsa [label="spher_harm.f", fillcolor="lightskyblue1", color="midnightblue", fontcolor="midnightblue"];
    julsb [label="xc.f", fillcolor="lightskyblue1", color="midnightblue", fontcolor="midnightblue"];
    jul00 [label="1.F90", style="dashed,filled", color="sienna", fontcolor="sienna"];
    jul01 [label="11.F90", style="dashed,filled", color="sienna", fontcolor="sienna"];
    jul02 [label="2.F90", style="dashed,filled", color="sienna", fontcolor="sienna"];
    jul03 [label="cell_pbc.F90"];
    jul04 [label="erf_fn.F", style="dashed,filled", color="sienna", fontcolor="sienna"];
    jul05 [label="gamma.F", style="dashed,filled", color="sienna", fontcolor="sienna"];
    jul06 [label="hfx_pair_list_methods.F", style="dashed,filled", color="sienna", fontcolor="sienna"];
    jul07 [label="hfx_screening_methods.F", style="dashed,filled", color="red4", fontcolor="red4"];
    jul08 [label="mathconstants.F", style="dashed,filled", color="sienna", fontcolor="sienna"];
    jul09 [label="nao2gto_contract_deriv_eri.F90", style="dashed,filled",  color="red4", fontcolor="red4"];
    jul10 [label="nao2gto_contract_eri.F90"];
    jul11 [label="nao2gto_erf_fn.F90"];
    jul12 [label="nao2gto_eri.F90"];
    jul13 [label="nao2gto_expint.F90"];
    jul14 [label="nao2gto_extend_indx.F90", style="dashed,filled", color="sienna", fontcolor="sienna"];
    jul15 [label="nao2gto_farfield.F90", style="dashed,filled",  color="red4", fontcolor="red4"];
    jul16 [label="nao2gto_farfield.f90", style="dashed,filled",  color="red4", fontcolor="red4"];
    jul17 [label="nao2gto_full_DM.F90"];
    jul18 [label="nao2gto_gamma_F.F90"];
    jul19 [label="nao2gto_hfx_gradient.F90", style="dashed,filled",  color="red4", fontcolor="red4"];
    jul20 [label="nao2gto_hfx_potential.F90"];
    jul21 [label="nao2gto_index.F90"];
    jul22 [label="nao2gto_kinds.F90"];
    jul23 [label="nao2gto_libint_wrapper.F90"];
    jul24 [label="nao2gto_libint_wrapper_types.F90"];
    jul25 [label="nao2gto_mathconstants.F90"];
    jul26 [label="nao2gto_neighb.F", style="dashed,filled",  color="red4", fontcolor="red4"];
    jul27 [label="nao2gto_neighb.F90", style="dashed,filled",  color="red4", fontcolor="red4"];
    jul28 [label="nao2gto_prescreen.F90"];
    jul29 [label="nao2gto_prescreen.F90_back", style="dashed,filled",  color="red4", fontcolor="red4"];
    jul30 [label="nao2gto_prescreen_1.F90", style="dashed,filled",  color="red4", fontcolor="red4"];
    jul31 [label="nao2gto_primitive_eri.F90"];
    jul32 [label="nao2gto_primitive_eri.F90_back", style="dashed,filled",  color="red4", fontcolor="red4"];
    jul33 [label="nao2gto_screen.F90", style="dashed,filled",  color="red4", fontcolor="red4"];
    jul34 [label="nao2gto_transfer.F90"];
    jul35 [label="nao2gto_types.F90"];
    jul36 [label="nao2gto_update_hfx.F90"];
    jul37 [label="nao2gto_update_hfx_new.F90", style="dashed,filled",  color="red4", fontcolor="red4"];
    jul38 [label="nao2gto_update_hfx_serial.F90", style="dashed,filled",  color="red4", fontcolor="red4"];
    jul39 [label="nao2gto_util.F90", style="dashed,filled",  color="red4", fontcolor="red4"];
    jul40 [label="powell.F90", style="dashed,filled",  color="red4", fontcolor="red4"];
    jul41 [label="qs_util.F", style="dashed,filled",  color="red4", fontcolor="red4"];
    jul42 [label="t_c_g0.F90", style="dashed,filled",  color="sienna", fontcolor="sienna"];
    jul43 [label="t_sh_p_s_c.F", style="dashed,filled",  color="sienna", fontcolor="sienna"];
    jul44 [label="xc_xwpbe.F90"];
  }

  /* November 2017 */
  subgraph cluster_2 {
    label = "November 2017";

    node [fillcolor="white"];

    novmf [label="Makefile", shape="component", fillcolor="lightskyblue1", color="midnightblue", fontcolor="midnightblue"];
    novs0 [label="atm_transfer.f", color="gray40", fontcolor="gray40"];
    novs1 [label="atm_types.f", fillcolor="lightskyblue1", color="midnightblue", fontcolor="midnightblue"];
    novs2 [label="atom.f", color="gray40", fontcolor="gray40"];
    novsc [label="basis_io.F", fillcolor="lightskyblue1", color="midnightblue", fontcolor="midnightblue"];
    novs3 [label="broadcast_basis.F", fillcolor="lightskyblue1", color="midnightblue", fontcolor="midnightblue"];
    novs4 [label="chemical.f", color="gray40", fontcolor="gray40"];
    novs5 [label="dhscf.F", fillcolor="lightskyblue1", color="midnightblue", fontcolor="midnightblue"];
    novs6 [label="initatom.f", color="gray40", fontcolor="gray40"];
    novs7 [label="initparallel.F", color="gray40", fontcolor="gray40"];
    novs8 [label="m_partial_charges.F", color="gray40", fontcolor="gray40"];
    novs9 [label="periodic_table.f", color="gray40", fontcolor="gray40"];
    novsd [label="radial.f", fillcolor="lightskyblue1", color="midnightblue", fontcolor="midnightblue"];
    novsa [label="spher_harm.f", color="gray40", fontcolor="gray40"];
    novsb [label="xc.f", color="gray40", fontcolor="gray40"];
    nov00 [label="1.F90", style="dashed,filled", color="sienna", fontcolor="sienna"];
    nov01 [label="11.F90", style="dashed,filled", color="sienna", fontcolor="sienna"];
    nov02 [label="2.F90", style="dashed,filled", color="sienna", fontcolor="sienna"];
    nov03 [label="cell_pbc.F90", color="gray40", fontcolor="gray40"];
    nov04 [label="erf_fn.F", style="dashed,filled", color="sienna", fontcolor="sienna"];
    nov05 [label="gamma.F", style="dashed,filled", color="sienna", fontcolor="sienna"];
    nov06 [label="hfx_pair_list_methods.F", style="dashed,filled", color="sienna", fontcolor="sienna"];
    nov07 [label="Trash", shape="oval", style="dashed,filled", fillcolor="pink", color="red4", fontcolor="red4"];
    nov08 [label="mathconstants.F", style="dashed,filled", color="sienna", fontcolor="sienna"];
    nov09 [label="Trash", shape="oval", style="dashed,filled", fillcolor="pink", color="red4", fontcolor="red4"];
    nov10 [label="nao2gto_contract_eri.F90", fillcolor="lightskyblue1", color="midnightblue", fontcolor="midnightblue"];
    nov11 [label="nao2gto_erf_fn.F90", color="gray40", fontcolor="gray40"];
    nov12 [label="nao2gto_eri.F90", fillcolor="lightskyblue1", color="midnightblue", fontcolor="midnightblue"];
    nov13 [label="nao2gto_expint.F90", color="gray40", fontcolor="gray40"];
    nov14 [label="nao2gto_extend_indx.F90", style="dashed,filled", color="sienna", fontcolor="sienna"];
    nov15 [label="Trash", shape="oval", style="dashed,filled", fillcolor="pink", color="red4", fontcolor="red4"];
    nov16 [label="Trash", shape="oval", style="dashed,filled", fillcolor="pink", color="red4", fontcolor="red4"];
    nov17 [label="nao2gto_full_DM.F90", color="gray40", fontcolor="gray40"];
    nov18 [label="nao2gto_gamma_F.F90", color="gray40", fontcolor="gray40"];
    nov19 [label="Trash", shape="oval", style="dashed,filled", fillcolor="pink", color="red4", fontcolor="red4"];
    nov20 [label="nao2gto_hfx_potential.F90", fillcolor="lightskyblue1", color="midnightblue", fontcolor="midnightblue"];
    nov21 [label="nao2gto_index.F90", color="gray40", fontcolor="gray40"];
    nov22 [label="nao2gto_kinds.F90", color="gray40", fontcolor="gray40"];
    nov23 [label="nao2gto_libint_wrapper.F90", color="gray40", fontcolor="gray40"];
    nov24 [label="nao2gto_libint_wrapper_types.F90", color="gray40", fontcolor="gray40"];
    nov25 [label="nao2gto_mathconstants.F90", color="gray40", fontcolor="gray40"];
    nov26 [label="Trash", shape="oval", style="dashed,filled", fillcolor="pink", color="red4", fontcolor="red4"];
    nov27 [label="Trash", shape="oval", style="dashed,filled", fillcolor="pink", color="red4", fontcolor="red4"];
    nov28 [label="nao2gto_prescreen.F90", fillcolor="lightskyblue1", color="midnightblue", fontcolor="midnightblue"];
    nov29 [label="Trash", shape="oval", style="dashed,filled", fillcolor="pink", color="red4", fontcolor="red4"];
    nov30 [label="Trash", shape="oval", style="dashed,filled", fillcolor="pink", color="red4", fontcolor="red4"];
    nov31 [label="nao2gto_primitive_eri.F90", fillcolor="lightskyblue1", color="midnightblue", fontcolor="midnightblue"];
    nov32 [label="Trash", shape="oval", style="dashed,filled", fillcolor="pink", color="red4", fontcolor="red4"];
    nov33 [label="Trash", shape="oval", style="dashed,filled", fillcolor="pink", color="red4", fontcolor="red4"];
    nov34 [label="nao2gto_transfer.F90", fillcolor="lightskyblue1", color="midnightblue", fontcolor="midnightblue"];
    nov35 [label="nao2gto_types.F90", fillcolor="lightskyblue1", color="midnightblue", fontcolor="midnightblue"];
    nov36 [label="nao2gto_update_hfx.F90", fillcolor="lightskyblue1", color="midnightblue", fontcolor="midnightblue"];
    nov37 [label="Trash", shape="oval", style="dashed,filled", fillcolor="pink", color="red4", fontcolor="red4"];
    nov38 [label="Trash", shape="oval", style="dashed,filled", fillcolor="pink", color="red4", fontcolor="red4"];
    nov39 [label="Trash", shape="oval", style="dashed,filled", fillcolor="pink", color="red4", fontcolor="red4"];
    nov40 [label="Trash", shape="oval", style="dashed,filled", fillcolor="pink", color="red4", fontcolor="red4"];
    nov41 [label="Trash", shape="oval", style="dashed,filled", fillcolor="pink", color="red4", fontcolor="red4"];
    nov42 [label="t_c_g0.F", style="dashed,filled", color="sienna", fontcolor="sienna"];
    nov43 [label="t_sh_p_s_c.F", style="dashed,filled", color="sienna", fontcolor="sienna"];
    nov44 [label="xc_xwpbe.F90", color="gray40", fontcolor="gray40"];
  }

  /* SIESTA 3.2 -> July */
  s32mf -> julmf;
  s32s0 -> juls0;
  s32s1 -> juls1;
  s32s2 -> juls2;
  s32s3 -> juls3;
  s32s4 -> juls4;
  s32s5 -> juls5;
  s32s6 -> juls6;
  s32s7 -> juls7;
  s32s8 -> juls8;
  s32s9 -> juls9;
  s32sa -> julsa;
  s32sb -> julsb;
  s32sc -> julsc [style="dashed", color="gray40"];
  s32sd -> julsd [style="dashed", color="gray40"];

  /* July -> November */
  julmf -> novmf;
  juls0 -> novs0 [style="dashed", color="gray40"];
  juls1 -> novs1;
  juls2 -> novs2 [style="dashed", color="gray40"];
  juls3 -> novs3;
  juls4 -> novs4 [style="dashed", color="gray40"];
  juls5 -> novs5;
  juls6 -> novs6 [style="dashed", color="gray40"];
  juls7 -> novs7 [style="dashed", color="gray40"];
  juls8 -> novs8 [style="dashed", color="gray40"];
  juls9 -> novs9 [style="dashed", color="gray40"];
  julsa -> novsa [style="dashed", color="gray40"];
  julsb -> novsb [style="dashed", color="gray40"];
  julsc -> novsc;
  julsd -> novsd;
  jul00 -> nov00 [style="dashed", color="sienna"];
  jul01 -> nov01 [style="dashed", color="sienna"];
  jul02 -> nov02 [style="dashed", color="sienna"];
  jul03 -> nov03 [style="dashed", color="gray40"];
  jul04 -> nov04 [style="dashed", color="sienna"];
  jul05 -> nov05 [style="dashed", color="sienna"];
  jul06 -> nov06 [style="dashed", color="sienna"];
  jul07 -> nov07 [style="dashed", color="red4"];
  jul08 -> nov08 [style="dashed", color="sienna"];
  jul09 -> nov09 [style="dashed", color="red4"];
  jul10 -> nov10;
  jul11 -> nov11 [style="dashed", color="gray40"];
  jul12 -> nov12;
  jul13 -> nov13 [style="dashed", color="gray40"];
  jul14 -> nov14 [style="dashed", color="sienna"];
  jul15 -> nov15 [style="dashed", color="red4"];
  jul16 -> nov16 [style="dashed", color="red4"];
  jul17 -> nov17 [style="dashed", color="gray40"];
  jul18 -> nov18 [style="dashed", color="gray40"];
  jul19 -> nov19 [style="dashed", color="red4"];
  jul20 -> nov20;
  jul21 -> nov21 [style="dashed", color="gray40"];
  jul22 -> nov22 [style="dashed", color="gray40"];
  jul23 -> nov23 [style="dashed", color="gray40"];
  jul24 -> nov24 [style="dashed", color="gray40"];
  jul25 -> nov25 [style="dashed", color="gray40"];
  jul26 -> nov26 [style="dashed", color="red4"];
  jul27 -> nov27 [style="dashed", color="red4"];
  jul28 -> nov28;
  jul29 -> nov29 [style="dashed", color="red4"];
  jul30 -> nov30 [style="dashed", color="red4"];
  jul31 -> nov31;
  jul32 -> nov32 [style="dashed", color="red4"];
  jul33 -> nov33 [style="dashed", color="red4"];
  jul34 -> nov34;
  jul35 -> nov35;
  jul36 -> nov36;
  jul37 -> nov37 [style="dashed", color="red4"];
  jul38 -> nov38 [style="dashed", color="red4"];
  jul39 -> nov39 [style="dashed", color="red4"];
  jul40 -> nov40 [style="dashed", color="red4"];
  jul41 -> nov41 [style="dashed", color="red4"];
  jul42 -> nov42 [style="dashed", color="sienna"];
  jul43 -> nov43 [style="dashed", color="gray40"];
  jul44 -> nov44 [style="dashed", color="gray40"];
}
